Title: * C:\Program Files\LTC\LTspiceIV\boost.asc
Date: Sun Sep 24 12:39:42 2017
Plotname: Transient Analysis
Flags: real forward
No. Variables: 14
No. Points:            0
Offset:   0.0000000000000000e+000
Command: Linear Technology Corporation LTspice IV
Variables:
